# vtk DataFile Version 3.0
MOAB 4.5.0
ASCII
DATASET UNSTRUCTURED_GRID
POINTS 942 double
-1.767766953 -5.303300859 0
-0.9644660941 -4.5 0
-1.566941738 -5.102475644 0
-1.366116524 -4.901650429 0
-1.165291309 -4.700825215 0
0.9644660941 -4.5 0
-0.6889043529 -4.5 0
-0.4133426117 -4.5 0
-0.1377808706 -4.5 0
0.1377808706 -4.5 0
0.4133426117 -4.5 0
0.6889043529 -4.5 0
1.767766953 -5.303300859 0
1.165291309 -4.700825215 0
1.366116524 -4.901650429 0
1.566941738 -5.102475644 0
5.303300859 -1.767766953 0
1.975739536 -5.095328276 0
2.183712118 -4.887355693 0
2.391684701 -4.679383111 0
2.599657284 -4.471410528 0
2.807629866 -4.263437945 0
3.015602449 -4.055465363 0
3.223575032 -3.84749278 0
3.431547615 -3.639520197 0
3.639520197 -3.431547615 0
3.84749278 -3.223575032 0
4.055465363 -3.015602449 0
4.263437945 -2.807629866 0
4.471410528 -2.599657284 0
4.679383111 -2.391684701 0
4.887355693 -2.183712118 0
5.095328276 -1.975739536 0
4.5 -0.9644660941 0
5.102475644 -1.566941738 0
4.901650429 -1.366116524 0
4.700825215 -1.165291309 0
4.5 0.9644660941 0
4.5 -0.6889043529 0
4.5 -0.4133426117 0
4.5 -0.1377808706 0
4.5 0.1377808706 0
4.5 0.4133426117 0
4.5 0.6889043529 0
5.303300859 1.767766953 0
4.700825215 1.165291309 0
4.901650429 1.366116524 0
5.102475644 1.566941738 0
1.767766953 5.303300859 0
5.095328276 1.975739536 0
4.887355693 2.183712118 0
4.679383111 2.391684701 0
4.471410528 2.599657284 0
4.263437945 2.807629866 0
4.055465363 3.015602449 0
3.84749278 3.223575032 0
3.639520197 3.431547615 0
3.431547615 3.639520197 0
3.223575032 3.84749278 0
3.015602449 4.055465363 0
2.807629866 4.263437945 0
2.599657284 4.471410528 0
2.391684701 4.679383111 0
2.183712118 4.887355693 0
1.975739536 5.095328276 0
0.9644660941 4.5 0
1.566941738 5.102475644 0
1.366116524 4.901650429 0
1.165291309 4.700825215 0
-0.9644660941 4.5 0
0.6889043529 4.5 0
0.4133426117 4.5 0
0.1377808706 4.5 0
-0.1377808706 4.5 0
-0.4133426117 4.5 0
-0.6889043529 4.5 0
-1.767766953 5.303300859 0
-1.165291309 4.700825215 0
-1.366116524 4.901650429 0
-1.566941738 5.102475644 0
-5.303300859 1.767766953 0
-1.975739536 5.095328276 0
-2.183712118 4.887355693 0
-2.391684701 4.679383111 0
-2.599657284 4.471410528 0
-2.807629866 4.263437945 0
-3.015602449 4.055465363 0
-3.223575032 3.84749278 0
-3.431547615 3.639520197 0
-3.639520197 3.431547615 0
-3.84749278 3.223575032 0
-4.055465363 3.015602449 0
-4.263437945 2.807629866 0
-4.471410528 2.599657284 0
-4.679383111 2.391684701 0
-4.887355693 2.183712118 0
-5.095328276 1.975739536 0
-4.5 0.9644660941 0
-5.102475644 1.566941738 0
-4.901650429 1.366116524 0
-4.700825215 1.165291309 0
-4.5 -0.9644660941 0
-4.5 0.6889043529 0
-4.5 0.4133426117 0
-4.5 0.1377808706 0
-4.5 -0.1377808706 0
-4.5 -0.4133426117 0
-4.5 -0.6889043529 0
-5.303300859 -1.767766953 0
-4.700825215 -1.165291309 0
-4.901650429 -1.366116524 0
-5.102475644 -1.566941738 0
-5.095328276 -1.975739536 0
-4.887355693 -2.183712118 0
-4.679383111 -2.391684701 0
-4.471410528 -2.599657284 0
-4.263437945 -2.807629866 0
-4.055465363 -3.015602449 0
-3.84749278 -3.223575032 0
-3.639520197 -3.431547615 0
-3.431547615 -3.639520197 0
-3.223575032 -3.84749278 0
-3.015602449 -4.055465363 0
-2.807629866 -4.263437945 0
-2.599657284 -4.471410528 0
-2.391684701 -4.679383111 0
-2.183712118 -4.887355693 0
-1.975739536 -5.095328276 0
-1.110223025e-16 1.414213562 0
1.414213562 -1.110223025e-16 0
0.2020305089 1.212183053 0
0.4040610178 1.010152545 0
0.6060915267 0.8081220356 0
0.8081220356 0.6060915267 0
1.010152545 0.4040610178 0
1.212183053 0.2020305089 0
1.110223025e-16 -1.414213562 0
1.212183053 -0.2020305089 0
1.010152545 -0.4040610178 0
0.8081220356 -0.6060915267 0
0.6060915267 -0.8081220356 0
0.4040610178 -1.010152545 0
0.2020305089 -1.212183053 0
-1.414213562 1.110223025e-16 0
-0.2020305089 -1.212183053 0
-0.4040610178 -1.010152545 0
-0.6060915267 -0.8081220356 0
-0.8081220356 -0.6060915267 0
-1.010152545 -0.4040610178 0
-1.212183053 -0.2020305089 0
-1.212183053 0.2020305089 0
-1.010152545 0.4040610178 0
-0.8081220356 0.6060915267 0
-0.6060915267 0.8081220356 0
-0.4040610178 1.010152545 0
-0.2020305089 1.212183053 0
-1.757898232 -4.886113576 0
-1.539135242 -4.678591105 0
-1.314397938 -4.482036816 0
-1.067836155 -4.303462275 0
-0.7676673957 -4.221119396 0
-0.4520300573 -4.215585233 0
-0.1540577491 -4.22171489 0
0.1224323873 -4.225945235 0
0.3986166672 -4.226981042 0
0.6631652148 -4.230415073 0
0.9022703465 -4.229630736 0
1.623460657 -0.1902479175 0
1.427747345 -0.3919425239 0
1.232208493 -0.59361621 0
1.036493307 -0.7969446141 0
0.8403641958 -1.002588702 0
0.6445855837 -1.209370181 0
0.4476597008 -1.418205146 0
0.2479617052 -1.626986514 0
0.04936513541 -1.83908819 0
-0.1829329968 -1.631221004 0
-0.3973427034 -1.42668027 0
-0.6058332253 -1.222968873 0
-0.8108880607 -1.018843165 0
-1.015423891 -0.8142287632 0
-1.219355903 -0.6084888064 0
-1.421025432 -0.4023230728 0
-1.621432392 -0.1930936891 0
-1.823046359 0.02255819624 0
-1.620098509 0.2204852264 0
-1.419470743 0.4218573649 0
-1.217531978 0.6221865198 0
-1.01540757 0.8224614455 0
-0.8105008251 1.022685136 0
-0.6049727222 1.221709065 0
-0.3973653347 1.421415425 0
-0.1904955785 1.62113956 0
0.02172530521 1.824523584 0
0.2177555461 1.622771951 0
0.4194236453 1.421709373 0
0.6230201785 1.220315614 0
0.8271149491 1.019105329 0
1.030013117 0.8170989659 0
1.231499232 0.6148269707 0
1.429405557 0.4111370786 0
1.625915492 0.2076937599 0
1.82194841 0.009659340927 0
2.019306483 -0.1818131742 0
1.83338136 -0.378349266 0
1.646579108 -0.5778583018 0
4.889695861 -1.763334665 0
4.685190507 -1.549662255 0
4.493081462 -1.332412335 0
4.320388161 -1.101254251 0
4.227352054 -0.8346130015 0
4.151231297 -0.5428587472 0
4.173285925 0.1515182057 0
4.225339043 0.4268552144 0
4.234886769 0.6813492543 0
4.203154982 0.9184543517 0
1.45739458 -0.7791872551 0
1.266738567 -0.983921483 0
1.078244914 -1.192715181 0
0.8891093391 -1.405783248 0
0.6955435019 -1.620887361 0
0.4960573242 -1.836539168 0
0.2900308492 -2.050025315 0
0.07566919198 -2.256915285 0
-0.1573477283 -2.048875085 0
-0.3829196763 -1.844190313 0
-0.5999776341 -1.639642878 0
-0.8111492911 -1.434641385 0
-1.019489436 -1.22926987 0
-1.225851183 -1.021462305 0
-1.429423778 -0.8130380213 0
-1.630831577 -0.602549626 0
-1.829779065 -0.3896398195 0
-2.026343683 -0.1746932981 0
-2.222943163 0.04030512853 0
-2.023919788 0.2391295434 0
-1.825165302 0.4396435606 0
-1.624962464 0.6408434397 0
-1.423692346 0.8416010279 0
-1.218969761 1.041739049 0
-1.012878855 1.239154905 0
-0.8030440561 1.435173603 0
-0.5921322496 1.630340076 0
-0.3805156576 1.826924661 0
-0.1709972316 2.026092594 0
0.03750914118 2.230621089 0
0.2328580962 2.033285329 0
0.432689815 1.833352465 0
0.6364674524 1.632739952 0
0.8424769358 1.432130033 0
1.049120724 1.23041093 0
1.254995614 1.028803913 0
1.456351675 0.8246475439 0
1.650792716 0.6161347708 0
1.839233848 0.4070770289 0
2.025335927 0.2026154679 0
2.211055317 0.007291627506 0
2.398197931 -0.1744525449 0
2.221581509 -0.3613879295 0
2.049648382 -0.5580224314 0
1.87137899 -0.7572178796 0
1.759892896 4.8865938 0
1.543633067 4.678111803 0
1.325169686 4.477477247 0
1.083272383 4.280879299 0
0.7493316169 4.112525419 0
0.385029716 4.174445032 0
0.09838436552 4.216868289 0
-0.1771061913 4.232717827 0
-0.4453392758 4.231244111 0
-0.7071917639 4.224571891 0
-0.9464987519 4.216285394 0
1.686882364 -0.958644659 0
1.502224376 -1.16382293 0
1.320689472 -1.37617375 0
1.141538446 -1.59756172 0
0.9502705267 -1.820510795 0
0.7496058063 -2.045025251 0
0.5382479286 -2.266345887 0
0.3076526146 -2.470638032 0
0.07550135983 -2.656821883 0
-0.1474828522 -2.455032983 0
-0.3712396513 -2.255822449 0
-0.5919313491 -2.054608768 0
-0.8084983154 -1.850972992 0
-1.021902994 -1.645628965 0
-1.231478626 -1.437844668 0
-1.438728391 -1.227950677 0
-1.64314992 -1.015939715 0
-1.84332054 -0.8024453388 0
-2.039757553 -0.5868914957 0
-2.232673336 -0.3699207887 0
-2.423414244 -0.1544020273 0
-2.616740771 0.05672491043 0
-2.420667053 0.2531300574 0
-2.225998527 0.454428494 0
-2.028716747 0.6575821964 0
-1.829586832 0.8609297023 0
-1.626530468 1.063086829 0
-1.420896823 1.263191405 0
-1.210539584 1.459313143 0
-0.9965594975 1.651619348 0
-0.7818229169 1.841713425 0
-0.5683460474 2.031958153 0
-0.3583183414 2.226262706 0
-0.1530218077 2.426324517 0
0.048973721 2.634161239 0
0.2434199832 2.443199727 0
0.4423778124 2.247019111 0
0.6460044098 2.047986801 0
0.8524186943 1.847072592 0
1.061800844 1.645075004 0
1.273677368 1.443161286 0
1.483792086 1.240000924 0
1.687423114 1.0315236 0
1.877864987 0.815393918 0
2.058928245 0.5984400893 0
2.234453159 0.3863702638 0
2.409537869 0.1851120256 0
2.587672005 -0.004207459627 0
2.76702522 -0.1783072733 0
2.592488507 -0.3410099733 0
2.431173372 -0.5266097798 0
2.276395553 -0.7268805817 0
2.104915285 -0.9284129168 0
-4.89330295 1.758606133 0
-4.693172245 1.541321155 0
-4.506055109 1.3180204 0
-4.33863218 1.080595903 0
-4.260594892 0.8059882054 0
-4.213329698 0.5131128907 0
-4.176965175 0.2073403187 0
-4.113929684 -0.158881453 0
-4.200640949 -0.505749976 0
-4.255425066 -0.8005259765 0
-4.337058555 -1.074261783 0
1.923256621 -1.130013562 0
1.741056798 -1.3343833 0
1.571715046 -1.548307729 0
1.406162937 -1.779495948 0
1.218417352 -2.014122266 0
1.012921892 -2.251270853 0
0.7911459719 -2.484942685 0
0.5457669193 -2.706778733 0
0.2606402361 -2.878809809 0
0.01746518111 -3.027749644 0
-0.1588515677 -2.841044897 0
-0.3685795965 -2.655272842 0
-0.5861846045 -2.464479049 0
-0.8041843399 -2.266196746 0
-1.021061005 -2.062629975 0
-1.234775783 -1.856323303 0
-1.446266495 -1.646019641 0
-1.655351299 -1.432785473 0
-1.859553211 -1.218501965 0
-2.059843479 -1.001362587 0
-2.254348417 -0.7825615046 0
-2.442137488 -0.5632730926 0
-2.626282077 -0.3451258139 0
-2.817055311 -0.1318986659 0
-3.009851566 0.07364633303 0
-2.806520515 0.2655182469 0
-2.618864892 0.4621861579 0
-2.428063026 0.6674739937 0
-2.232535511 0.8745453574 0
-2.03189065 1.08173258 0
-1.827309706 1.287499811 0
-1.617489142 1.489229028 0
[...]
POINT_DATA 942
SCALARS GLOBAL_ID int 1
LOOKUP_TABLE default
1103 
1104 
1105 
1106 
1107 
1108 
1109 
1110 
1111 
1112 
1113 
1114 
1115 
1116 
1117 
1118 
1119 
1120 
1121 
1122 
1123 
1124 
1125 
1126 
1127 
1128 
1129 
1130 
1131 
1132 
1133 
1134 
1135 
1136 
1137 
1138 
1139 
1140 
1141 
1142 
1143 
1144 
1145 
1146 
1147 
1148 
1149 
1150 
1151 
1152 
1153 
1154 
1155 
1156 
1157 
1158 
1159 
1160 
1161 
1162 
1163 
1164 
1165 
1166 
1167 
1168 
1169 
1170 
1171 
1172 
1173 
1174 
1175 
1176 
1177 
1178 
1179 
1180 
1181 
1182 
1183 
1184 
1185 
1186 
1187 
1188 
1189 
1190 
1191 
1192 
1193 
1194 
1195 
1196 
1197 
1198 
1199 
1200 
1201 
1202 
1203 
1204 
1205 
1206 
1207 
1208 
1209 
1210 
1211 
1212 
1213 
1214 
1215 
1216 
1217 
1218 
1219 
1220 
1221 
1222 
1223 
1224 
1225 
1226 
1227 
1228 
1229 
1230 
1231 
1232 
1233 
1234 
1235 
1236 
1237 
1238 
1239 
1240 
1241 
1242 
1243 
1244 
1245 
1246 
1247 
1248 
1249 
1250 
1251 
1252 
1253 
1254 
1255 
1256 
1257 
1258 
1259 
1260 
1261 
1262 
1263 
1264 
1265 
1266 
1267 
1268 
1269 
1270 
1271 
1272 
1273 
1274 
1275 
1276 
1277 
1278 
1279 
1280 
1281 
1282 
1283 
1284 
1285 
1286 
1287 
1288 
1289 
1290 
1291 
1292 
1293 
1294 
1295 
1296 
1297 
1298 
1299 
1300 
1301 
1302 
1303 
1304 
1305 
1306 
1307 
1308 
1309 
1310 
1311 
1312 
1313 
1314 
1315 
1316 
1317 
1318 
1319 
1320 
1321 
1322 
1323 
1324 
1325 
1326 
1327 
1328 
1329 
1330 
1331 
1332 
1333 
1334 
1335 
1336 
1337 
1338 
1339 
1340 
1341 
1342 
1343 
1344 
1345 
1346 
1347 
1348 
1349 
1350 
1351 
1352 
1353 
1354 
1355 
1356 
1357 
1358 
1359 
1360 
1361 
1362 
1363 
1364 
1365 
1366 
1367 
1368 
1369 
1370 
1371 
1372 
1373 
1374 
1375 
1376 
1377 
1378 
1379 
1380 
1381 
1382 
1383 
1384 
1385 
1386 
1387 
1388 
1389 
1390 
1391 
1392 
1393 
1394 
1395 
1396 
1397 
1398 
1399 
1400 
1401 
1402 
1403 
1404 
1405 
1406 
1407 
1408 
1409 
1410 
1411 
1412 
1413 
1414 
1415 
1416 
1417 
1418 
1419 
1420 
1421 
1422 
1423 
1424 
1425 
1426 
1427 
1428 
1429 
1430 
1431 
1432 
1433 
1434 
1435 
1436 
1437 
1438 
1439 
1440 
1441 
1442 
1443 
1444 
1445 
1446 
1447 
1448 
1449 
1450 
1451 
1452 
1453 
1454 
1455 
1456 
1457 
1458 
1459 
1460 
1461 
1462 
1463 
1464 
1465 
1466 
1467 
1468 
1469 
1470 
1471 
1472 
1473 
1474 
1475 
1476 
1477 
1478 
1479 
1480 
1481 
1482 
1483 
1484 
1485 
1486 
1487 
1488 
1489 
1490 
1491 
1492 
1493 
1494 
1495 
1496 
1497 
1498 
1499 
1500 
1501 
1502 
1503 
1504 
1505 
1506 
1507 
1508 
1509 
1510 
1511 
1512 
1513 
1514 
1515 
1516 
1517 
1518 
1519 
1520 
1521 
1522 
1523 
1524 
1525 
1526 
1527 
1528 
1529 
1530 
1531 
1532 
1533 
1534 
1535 
1536 
1537 
1538 
1539 
1540 
1541 
1542 
1543 
1544 
1545 
1546 
1547 
1548 
1549 
1550 
1551 
1552 
1553 
1554 
1555 
1556 
1557 
1558 
1559 
1560 
1561 
1562 
1563 
1564 
1565 
1566 
1567 
1568 
1569 
1570 
1571 
1572 
1573 
1574 
1575 
1576 
1577 
1578 
1579 
1580 
1581 
1582 
1583 
1584 
1585 
1586 
1587 
1588 
1589 
1590 
1591 
1592 
1593 
1594 
1595 
1596 
1597 
1598 
1599 
1600 
1601 
1602 
1603 
1604 
1605 
1606 
1607 
1608 
1609 
1610 
1611 
1612 
1613 
1614 
1615 
1616 
1617 
1618 
1619 
1620 
1621 
1622 
1623 
1624 
1625 
1626 
1627 
1628 
1629 
1630 
1631 
1632 
1633 
1634 
1635 
1636 
1637 
1638 
1639 
1640 
1641 
1642 
1643 
1644 
1645 
1646 
1647 
1648 
1649 
1650 
1651 
1652 
1653 
1654 
1655 
1656 
1657 
1658 
1659 
1660 
1661 
1662 
1663 
1664 
1665 
1666 
1667 
1668 
1669 
1670 
1671 
1672 
1673 
1674 
1675 
1676 
1677 
1678 
1679 
1680 
1681 
1682 
1683 
1684 
1685 
1686 
1687 
1688 
1689 
1690 
1691 
1692 
1693 
1694 
1695 
1696 
1697 
1698 
1699 
1700 
1701 
1702 
1703 
1704 
1705 
1706 
1707 
1708 
1709 
1710 
1711 
1712 
1713 
1714 
1715 
1716 
1717 
1718 
1719 
1720 
1721 
1722 
1723 
1724 
1725 
1726 
1727 
1728 
1729 
1730 
1731 
1732 
1733 
1734 
1735 
1736 
1737 
1738 
1739 
1740 
1741 
1742 
1743 
1744 
1745 
1746 
1747 
1748 
1749 
1750 
1751 
1752 
1753 
1754 
1755 
1756 
1757 
1758 
1759 
1760 
1761 
1762 
1763 
1764 
1765 
1766 
1767 
1768 
1769 
1770 
1771 
1772 
1773 
1774 
1775 
1776 
1777 
1778 
1779 
1780 
1781 
1782 
1783 
1784 
1785 
1786 
1787 
1788 
1789 
1790 
1791 
1792 
1793 
1794 
1795 
1796 
1797 
1798 
1799 
1800 
1801 
1802 
1803 
1804 
1805 
1806 
1807 
1808 
1809 
1810 
1811 
1812 
1813 
1814 
1815 
1816 
1817 
1818 
1819 
1820 
1821 
1822 
1823 
1824 
1825 
1826 
1827 
1828 
1829 
1830 
1831 
1832 
1833 
1834 
1835 
1836 
1837 
1838 
1839 
1840 
1841 
1842 
1843 
1844 
1845 
1846 
1847 
1848 
1849 
1850 
1851 
1852 
1853 
1854 
1855 
1856 
1857 
1858 
1859 
1860 
1861 
1862 
1863 
1864 
1865 
1866 
1867 
1868 
1869 
1870 
1871 
1872 
1873 
1874 
1875 
1876 
1877 
1878 
1879 
1880 
1881 
1882 
1883 
1884 
1885 
1886 
1887 
1888 
1889 
1890 
1891 
1892 
1893 
1894 
1895 
1896 
1897 
1898 
1899 
1900 
1901 
1902 
1903 
1904 
1905 
1906 
1907 
1908 
1909 
1910 
1911 
1912 
1913 
1914 
1915 
1916 
1917 
1918 
1919 
1920 
1921 
1922 
1923 
1924 
1925 
1926 
1927 
1928 
1929 
1930 
1931 
1932 
1933 
1934 
1935 
1936 
1937 
1938 
1939 
1940 
1941 
1942 
1943 
1944 
1945 
1946 
1947 
1948 
1949 
1950 
1951 
1952 
1953 
1954 
1955 
1956 
1957 
1958 
1959 
1960 
1961 
1962 
1963 
1964 
1965 
1966 
1967 
1968 
1969 
1970 
1971 
1972 
1973 
1974 
1975 
1976 
1977 
1978 
1979 
1980 
1981 
1982 
1983 
1984 
1985 
1986 
1987 
1988 
1989 
1990 
1991 
1992 
1993 
1994 
1995 
1996 
1997 
1998 
1999 
2000 
2001 
2002 
2003 
2004 
2005 
2006 
2007 
2008 
2009 
2010 
2011 
2012 
2013 
2014 
2015 
2016 
2017 
2018 
2019 
2020 
2021 
2022 
2023 
2024 
2025 
2026 
2027 
2028 
2029 
2030 
2031 
2032 
2033 
2034 
2035 
2036 
2037 
2038 
2039 
2040 
2041 
2042 
2043 
2044 
CELL_DATA 2670
SCALARS GLOBAL_ID int 1
LOOKUP_TABLE default
3261 
3260 
3259 
3258 
3257 
3256 
3255 
3254 
3253 
3252 
3251 
3250 
3249 
3248 
3247 
3229 
3228 
3227 
3226 
3225 
3224 
3223 
3222 
3221 
3220 
3219 
3218 
3217 
3216 
3215 
3197 
3196 
3195 
3194 
3193 
3192 
3191 
3190 
3189 
3188 
3187 
3186 
3185 
3184 
3183 
3165 
3164 
3163 
3162 
3154 
3153 
3152 
3151 
3161 
3160 
3159 
3158 
3157 
3156 
3155 
3292 
3291 
3290 
3289 
3288 
3287 
3286 
3285 
3284 
3283 
3282 
3281 
3280 
3279 
3182 
3181 
3180 
3179 
3178 
3177 
3176 
3175 
3174 
3173 
3172 
3171 
3170 
3169 
3168 
3167 
3166 
3214 
3213 
3212 
3211 
3210 
3209 
3208 
3207 
3206 
3205 
3204 
3203 
3202 
3201 
3200 
3199 
3198 
3246 
3245 
3244 
3243 
3242 
3241 
3240 
3239 
3238 
3237 
3236 
3235 
3234 
3233 
3232 
3231 
3230 
3278 
3277 
3276 
3275 
3274 
3273 
3272 
3271 
3270 
3269 
3268 
3267 
3266 
3265 
3264 
3263 
3262 
3299 
3298 
3297 
3296 
3295 
3294 
3293 
3306 
3305 
3304 
3303 
3302 
3301 
3300 
4956 
4955 
4954 
4953 
4952 
4951 
4950 
4949 
4948 
4947 
4946 
4945 
4944 
4943 
4942 
4941 
4940 
4939 
4938 
4937 
4936 
4935 
4934 
4933 
4932 
4931 
4930 
4929 
4928 
4927 
4926 
4925 
4924 
4923 
4922 
4921 
4920 
4919 
4918 
4917 
4916 
4915 
4914 
4913 
4912 
4911 
4910 
4909 
4908 
4907 
4906 
4905 
4904 
4903 
4902 
4901 
4900 
4899 
4898 
4897 
4896 
4895 
4894 
4893 
4892 
4891 
4890 
4889 
4888 
4887 
4886 
4885 
4884 
4883 
4882 
4881 
4880 
4879 
4878 
4877 
4876 
4875 
4874 
4873 
4872 
4871 
4870 
4869 
4868 
4867 
4866 
4865 
4864 
4863 
4862 
4861 
4860 
4859 
4858 
4857 
4856 
4855 
4854 
4853 
4852 
4851 
4850 
4849 
4848 
4847 
4846 
4845 
4844 
4843 
4842 
4841 
4840 
4839 
4838 
4837 
4836 
4835 
4834 
4833 
4832 
4831 
4830 
4829 
4828 
4827 
4826 
4825 
4824 
4823 
4822 
4821 
4820 
4819 
4818 
4817 
4816 
4815 
4814 
4813 
4812 
4811 
4810 
4809 
4808 
4807 
4806 
4805 
4804 
4803 
4802 
4801 
4800 
4799 
4798 
4797 
4796 
4795 
4794 
4793 
4792 
4791 
4790 
4789 
4788 
4787 
4786 
4785 
4784 
4783 
4782 
4781 
4780 
4779 
4778 
4777 
4776 
4775 
4774 
4773 
4772 
4771 
4770 
4769 
4768 
4767 
4766 
4765 
4764 
4763 
4762 
4761 
4760 
4759 
4758 
4757 
4756 
4755 
4754 
4753 
4752 
4751 
4750 
4749 
4748 
4747 
4746 
4745 
4744 
4743 
4742 
4741 
4740 
4739 
4738 
4737 
4736 
4735 
4734 
4733 
4732 
4731 
4730 
4729 
4728 
4727 
4726 
4725 
4724 
4723 
4722 
4721 
4720 
4719 
4718 
4717 
4716 
4715 
4714 
4713 
4712 
4711 
4710 
4709 
4708 
4707 
4706 
4705 
4704 
4703 
4702 
4701 
4700 
4699 
4698 
4697 
4696 
4695 
4694 
4693 
4692 
4691 
4690 
4689 
4688 
4687 
4686 
4685 
4684 
4683 
4682 
4681 
4680 
4679 
4678 
4677 
4676 
4675 
4674 
4673 
4672 
4671 
4670 
4669 
4668 
4667 
4666 
4665 
4664 
4663 
4662 
4661 
4660 
4659 
4658 
4657 
4656 
4655 
4654 
4653 
4652 
4651 
4650 
4649 
4648 
4647 
4646 
4645 
4644 
4643 
4642 
4641 
4640 
4639 
4638 
4637 
4636 
4635 
4634 
4633 
4632 
4631 
4630 
4629 
4628 
4627 
4626 
4625 
4624 
4623 
4622 
4621 
4620 
4619 
4618 
4617 
4616 
4615 
4614 
4613 
4612 
4611 
4610 
4609 
4608 
4607 
4606 
4605 
4604 
4603 
4602 
4601 
4600 
4599 
4598 
4597 
4596 
4595 
4594 
4593 
4592 
4591 
4590 
4589 
4588 
4587 
4586 
4585 
4584 
4583 
4582 
4581 
4580 
4579 
4578 
4577 
4576 
4575 
4574 
4573 
4572 
4571 
4570 
4569 
4568 
4567 
4566 
4565 
4564 
4563 
4562 
4561 
4560 
4559 
4558 
4557 
4556 
4555 
4554 
4553 
4552 
4551 
4550 
4549 
4548 
4547 
4546 
4545 
4544 
4543 
4542 
4541 
4540 
4539 
4538 
4537 
4536 
4535 
4534 
4533 
4532 
4531 
4530 
4529 
4528 
4527 
4526 
4525 
4524 
4523 
4522 
4521 
4520 
4519 
4518 
4517 
4516 
4515 
4514 
4513 
4512 
4511 
4510 
4509 
4508 
4507 
4506 
4505 
4504 
4503 
4502 
4501 
4500 
4499 
4498 
4497 
4496 
4495 
4494 
4493 
4492 
4491 
4490 
4489 
4488 
4487 
4486 
4485 
4484 
4483 
4482 
4481 
4480 
4479 
4478 
4477 
4476 
4475 
4474 
4473 
4472 
4471 
4470 
4469 
4468 
4467 
4466 
4465 
4464 
4463 
4462 
4461 
4460 
4459 
4458 
4457 
4456 
4455 
4454 
4453 
4452 
4451 
4450 
4449 
4448 
4447 
4446 
4445 
4444 
4443 
4442 
4441 
4440 
4439 
4438 
4437 
4436 
4435 
4434 
4433 
4432 
4431 
4430 
4429 
4428 
4427 
4426 
4425 
4424 
4423 
4422 
4421 
4420 
4419 
4418 
4417 
4416 
4415 
4414 
4413 
4412 
4411 
4410 
4409 
4408 
4407 
4406 
4405 
4404 
4403 
4402 
4401 
4400 
4399 
4398 
4397 
4396 
4395 
4394 
4393 
4392 
4391 
4390 
4389 
4388 
4387 
4386 
4385 
4384 
4383 
4382 
4381 
4380 
4379 
4378 
4377 
4376 
4375 
4374 
4373 
4372 
4371 
4370 
4369 
4368 
4367 
4366 
4365 
4364 
4363 
4362 
4361 
4360 
4359 
4358 
4357 
4356 
4355 
4354 
4353 
4352 
4351 
4350 
4349 
4348 
4347 
4346 
4345 
4344 
4343 
4342 
4341 
4340 
4339 
4338 
4337 
4336 
4335 
4334 
4333 
4332 
4331 
4330 
4329 
4328 
4327 
4326 
4325 
4324 
4323 
4322 
4321 
4320 
4319 
4318 
4317 
4316 
4315 
4314 
4313 
4312 
4311 
4310 
4309 
4308 
4307 
4306 
4305 
4304 
4303 
4302 
4301 
4300 
4299 
4298 
4297 
4296 
4295 
4294 
4293 
4292 
4291 
4290 
4289 
4288 
4287 
4286 
4285 
4284 
4283 
4282 
4281 
4280 
4279 
4278 
4277 
4276 
4275 
4274 
4273 
4272 
4271 
4270 
4269 
4268 
4267 
4266 
4265 
4264 
4263 
4262 
4261 
4260 
4259 
4258 
4257 
4256 
4255 
4254 
4253 
4252 
4251 
4250 
4249 
4248 
4247 
4246 
4245 
4244 
4243 
4242 
4241 
4240 
4239 
4238 
4237 
4236 
4235 
4234 
4233 
4232 
4231 
4230 
4229 
4228 
4227 
4226 
4225 
4224 
4223 
4222 
4221 
4220 
4219 
4218 
4217 
4216 
4215 
4214 
4213 
4212 
4211 
4210 
4209 
4208 
4207 
4206 
4205 
4204 
4203 
4202 
4201 
4200 
4199 
4198 
4197 
4196 
4195 
4194 
4193 
4192 
4191 
4190 
4189 
4188 
4187 
4186 
4185 
4184 
4183 
4182 
4181 
4180 
4179 
4178 
4177 
4176 
4175 
4174 
4173 
4172 
4171 
4170 
4169 
4168 
4167 
4166 
4165 
4164 
4163 
4162 
4161 
4160 
4159 
4158 
4157 
4156 
4155 
4154 
4153 
4152 
4151 
4150 
4149 
4148 
4147 
4146 
4145 
4144 
4143 
4142 
4141 
4140 
4139 
4138 
4137 
4136 
4135 
4134 
4133 
4132 
4131 
4130 
4129 
4128 
4127 
4126 
4125 
4124 
4123 
4122 
4121 
4120 
4119 
4118 
4117 
4116 
4115 
4114 
4113 
4112 
4111 
4110 
4109 
4108 
4107 
4106 
4105 
4104 
4103 
4102 
4101 
4100 
4099 
4098 
4097 
4096 
4095 
4094 
4093 
4092 
4091 
4090 
4089 
4088 
4087 
4086 
4085 
4084 
4083 
4082 
4081 
4080 
4079 
4078 
4077 
4076 
4075 
4074 
4073 
4072 
4071 
4070 
4069 
4068 
4067 
4066 
4065 
4064 
4063 
4062 
4061 
4060 
4059 
4058 
4057 
4056 
4055 
4054 
4053 
4052 
4051 
4050 
4049 
4048 
4047 
4046 
4045 
4044 
4043 
4042 
4041 
4040 
4039 
4038 
4037 
4036 
4035 
4034 
4033 
4032 
4031 
4030 
4029 
4028 
4027 
4026 
4025 
4024 
4023 
4022 
4021 
4020 
4019 
4018 
4017 
4016 
4015 
4014 
4013 
4012 
4011 
4010 
4009 
4008 
4007 
4006 
4005 
4004 
4003 
4002 
4001 
4000 
3999 
3998 
3997 
3996 
3995 
3994 
3993 
3992 
3991 
3990 
3989 
3988 
3987 
3986 
3985 
3984 
3983 
3982 
3981 
3980 
3979 
3978 
3977 
3976 
3975 
3974 
3973 
3972 
3971 
3970 
3969 
3968 
3967 
3966 
3965 
3964 
3963 
3962 
3961 
3960 
3959 
3958 
3957 
3956 
3955 
3954 
3953 
3952 
3951 
3950 
3949 
3948 
3947 
3946 
3945 
3944 
3943 
3942 
3941 
3940 
3939 
3938 
3937 
3936 
3935 
3934 
3933 
3932 
3931 
3930 
3929 
3928 
3927 
3926 
3925 
3924 
3923 
3922 
3921 
3920 
3919 
3918 
3917 
3916 
3915 
3914 
3913 
3912 
3911 
3910 
3909 
3908 
3907 
3906 
3905 
3904 
3903 
3902 
3901 
3900 
3899 
3898 
3897 
3896 
3895 
3894 
3893 
3892 
3891 
3890 
3889 
3888 
3887 
3886 
3885 
3884 
3883 
3882 
3881 
3880 
3879 
3878 
3877 
3876 
3875 
3874 
3873 
3872 
3871 
3870 
3869 
3868 
3867 
3866 
3865 
3864 
3863 
3862 
3861 
3860 
3859 
3858 
3857 
3856 
3855 
3854 
3853 
3852 
3851 
3850 
3849 
3848 
3847 
3846 
3845 
3844 
3843 
3842 
3841 
3840 
3839 
3838 
3837 
3836 
3835 
3834 
3833 
3832 
3831 
3830 
3829 
3828 
3827 
3826 
3825 
3824 
3823 
3822 
3821 
3820 
3819 
3818 
3817 
3816 
3815 
3814 
3813 
3812 
3811 
3810 
3809 
3808 
3807 
3806 
3805 
3804 
3803 
3802 
3801 
3800 
3799 
3798 
3797 
3796 
3795 
3794 
3793 
3792 
3791 
3790 
3789 
3788 
3787 
3786 
3785 
3784 
3783 
3782 
3781 
3780 
3779 
3778 
3777 
3776 
3775 
3774 
3773 
3772 
3771 
3770 
3769 
3768 
3767 
3766 
3765 
3764 
3763 
3762 
3761 
3760 
3759 
3758 
3757 
3756 
3755 
3754 
3753 
3752 
3751 
3750 
3749 
3748 
3747 
3746 
3745 
3744 
3743 
3742 
3741 
3740 
3739 
3738 
3737 
3736 
3735 
3734 
3733 
3732 
3731 
3730 
3729 
3728 
3727 
3726 
3725 
3724 
3723 
3722 
3721 
3720 
3719 
3718 
3717 
3716 
3715 
3714 
3713 
3712 
3711 
3710 
3709 
3708 
3707 
3706 
3705 
3704 
3703 
3702 
3701 
3700 
3699 
3698 
3697 
3696 
3695 
3694 
3693 
3692 
3691 
3690 
3689 
3688 
3687 
3686 
3685 
3684 
3683 
3682 
3681 
3680 
3679 
3678 
3677 
3676 
3675 
3674 
3673 
3672 
3671 
3670 
3669 
3668 
3667 
3666 
3665 
3664 
3663 
3662 
3661 
3660 
3659 
3658 
3657 
3656 
3655 
3654 
3653 
3652 
3651 
3650 
3649 
3648 
3647 
3646 
3645 
3644 
3643 
3642 
3641 
3640 
3639 
3638 
3637 
3636 
3635 
3634 
3633 
3632 
3631 
3630 
3629 
3628 
3627 
3626 
3625 
3624 
3623 
3622 
3621 
3620 
3619 
3618 
3617 
3616 
3615 
3614 
3613 
3612 
3611 
3610 
3609 
3608 
3607 
3606 
3605 
3604 
3603 
3602 
3601 
3600 
3599 
3598 
3597 
3596 
3595 
3594 
3593 
3592 
3591 
3590 
3589 
3588 
3587 
3586 
3585 
3584 
3583 
3582 
3581 
3580 
3579 
3578 
3577 
3576 
3575 
3574 
3573 
3572 
3571 
3570 
3569 
3568 
3567 
3566 
3565 
3564 
3563 
3562 
3561 
3560 
3559 
3558 
3557 
3556 
3555 
3554 
3553 
3552 
3551 
3550 
3549 
3548 
3547 
3546 
3545 
3544 
3543 
3542 
3541 
3540 
3539 
3538 
3537 
3536 
3535 
3534 
3533 
3532 
3531 
3530 
3529 
3528 
3527 
3526 
3525 
3524 
3523 
3522 
3521 
3520 
3519 
3518 
3517 
3516 
3515 
3514 
3513 
3512 
3511 
3510 
3509 
3508 
3507 
3506 
3505 
3504 
3503 
3502 
3501 
3500 
3499 
3498 
3497 
3496 
3495 
3494 
3493 
3492 
3491 
3490 
3489 
3488 
3487 
3486 
3485 
3484 
3483 
3482 
3481 
3480 
3479 
3478 
3477 
3476 
3475 
3474 
3473 
3472 
3471 
3470 
3469 
3468 
3467 
3466 
3465 
3464 
3463 
3462 
3461 
3460 
3459 
3458 
3457 
3456 
3455 
3454 
3453 
3452 
3451 
3450 
3449 
3448 
3447 
3446 
3445 
3444 
3443 
3442 
3441 
3440 
3439 
3438 
3437 
3436 
3435 
3434 
3433 
3432 
3431 
3430 
3429 
3428 
3427 
3426 
3425 
3424 
3423 
3422 
3421 
3420 
3419 
3418 
3417 
3416 
3415 
3414 
3413 
3412 
3411 
3410 
3409 
3408 
3407 
3406 
3405 
3404 
3403 
3402 
3401 
3400 
3399 
3398 
3397 
3396 
3395 
3394 
3393 
3392 
3391 
3390 
3389 
3388 
3387 
3386 
3385 
3384 
3383 
3382 
3381 
3380 
3379 
3378 
3377 
3376 
3375 
3374 
3373 
3372 
3371 
3370 
3369 
3368 
3367 
3366 
3365 
3364 
3363 
3362 
3361 
3360 
3359 
3358 
3357 
3356 
3355 
3354 
3353 
3352 
3351 
3350 
3349 
3348 
3347 
3346 
3345 
3344 
3343 
3342 
3341 
3340 
3339 
3338 
3337 
3336 
3335 
3334 
3333 
3332 
3331 
3330 
3329 
3328 
3327 
3326 
3325 
3324 
3323 
3322 
3321 
3320 
3319 
3318 
3317 
3316 
3315 
3314 
3313 
3312 
3311 
3310 
3309 
3308 
3307 
864 
863 
862 
861 
860 
859 
858 
857 
856 
855 
854 
853 
852 
851 
850 
849 
848 
847 
846 
845 
844 
843 
842 
841 
840 
839 
838 
837 
836 
835 
834 
833 
832 
831 
830 
829 
828 
827 
826 
825 
824 
823 
822 
821 
820 
819 
818 
817 
816 
815 
814 
813 
812 
811 
810 
809 
808 
807 
806 
805 
804 
803 
802 
801 
800 
799 
798 
797 
796 
795 
794 
793 
792 
791 
790 
789 
788 
787 
786 
785 
784 
783 
782 
781 
780 
779 
778 
777 
776 
775 
774 
773 
772 
771 
770 
769 
768 
767 
766 
765 
764 
763 
762 
761 
760 
759 
758 
757 
756 
755 
754 
753 
752 
751 
750 
749 
748 
747 
746 
745 
744 
743 
742 
741 
740 
739 
738 
737 
736 
735 
734 
733 
732 
731 
730 
729 
728 
727 
726 
725 
724 
723 
722 
721 
720 
719 
718 
717 
716 
715 
714 
713 
712 
711 
710 
709 
708 
707 
706 
705 
704 
703 
702 
701 
700 
699 
698 
697 
696 
695 
694 
693 
692 
691 
690 
689 
688 
687 
686 
685 
684 
683 
682 
681 
680 
679 
678 
677 
676 
675 
674 
673 
672 
671 
670 
669 
668 
667 
666 
665 
664 
663 
662 
661 
660 
659 
658 
657 
656 
655 
654 
653 
652 
651 
650 
649 
648 
647 
646 
645 
644 
643 
642 
641 
640 
639 
638 
637 
636 
635 
634 
633 
632 
631 
630 
629 
628 
627 
626 
625 
624 
623 
622 
621 
620 
619 
618 
617 
616 
615 
614 
613 
612 
611 
610 
609 
608 
607 
606 
605 
604 
603 
602 
601 
600 
599 
598 
597 
596 
595 
594 
593 
592 
591 
590 
589 
588 
587 
586 
585 
584 
583 
582 
581 
580 
579 
578 
577 
576 
575 
574 
573 
572 
571 
570 
569 
568 
567 
566 
565 
564 
563 
562 
561 
560 
559 
558 
557 
556 
555 
554 
553 
552 
551 
550 
549 
548 
547 
546 
545 
544 
543 
542 
541 
540 
539 
538 
537 
536 
535 
534 
533 
532 
531 
530 
529 
528 
527 
526 
525 
524 
523 
522 
521 
520 
519 
518 
517 
516 
515 
514 
513 
512 
511 
510 
509 
508 
507 
506 
505 
504 
503 
502 
501 
500 
499 
498 
497 
496 
495 
494 
493 
492 
491 
490 
489 
488 
487 
486 
485 
484 
483 
482 
481 
480 
479 
478 
477 
476 
475 
474 
473 
472 
471 
470 
469 
468 
467 
466 
465 
464 
463 
462 
461 
460 
459 
458 
457 
456 
455 
454 
453 
452 
451 
450 
449 
448 
447 
446 
445 
444 
443 
442 
441 
440 
439 
438 
437 
436 
435 
434 
433 
432 
431 
430 
429 
428 
427 
426 
425 
424 
423 
422 
421 
420 
419 
418 
417 
416 
415 
414 
413 
412 
411 
410 
409 
408 
407 
406 
405 
404 
403 
402 
401 
400 
399 
398 
397 
396 
395 
394 
393 
392 
391 
390 
389 
388 
387 
386 
385 
384 
383 
382 
381 
380 
379 
378 
377 
376 
375 
374 
373 
372 
371 
370 
369 
368 
367 
366 
365 
364 
363 
362 
361 
360 
359 
358 
357 
356 
355 
354 
353 
352 
351 
350 
349 
348 
347 
346 
345 
344 
343 
342 
341 
340 
339 
338 
337 
336 
335 
334 
333 
332 
331 
330 
329 
328 
327 
326 
325 
324 
323 
322 
321 
320 
319 
318 
317 
316 
315 
314 
313 
312 
311 
310 
309 
308 
307 
306 
305 
304 
303 
302 
301 
300 
299 
298 
297 
296 
295 
294 
293 
292 
291 
290 
289 
288 
287 
286 
285 
284 
283 
282 
281 
280 
279 
278 
277 
276 
275 
274 
273 
272 
271 
270 
269 
268 
267 
266 
265 
264 
263 
262 
261 
260 
259 
258 
257 
256 
255 
254 
253 
252 
251 
250 
249 
248 
247 
246 
245 
244 
243 
242 
241 
240 
239 
238 
237 
236 
235 
234 
233 
232 
231 
230 
229 
228 
227 
226 
225 
224 
223 
222 
221 
220 
219 
218 
217 
216 
215 
214 
213 
212 
211 
210 
209 
208 
207 
206 
205 
204 
203 
202 
201 
200 
199 
198 
197 
196 
195 
194 
193 
192 
191 
190 
189 
188 
187 